
Host: QUADRAXIS

Timers On : Wed Feb 24 12:01:27 2021
Timers Off: Wed Feb 24 12:15:09 2021

Wall Time:      822.25 seconds

                                                       Time (seconds)
Module                                       User      System        Wall        Calls

--------------------------------------------------------------------------------------

**************************************************************************************
